6
	Energy:      62.3648881
C         -5.22699       -0.55855        0.48561
C         -3.92756       -0.53889        0.53723
N         -4.61483        0.48321        1.06347
H         -6.14814       -1.06094        0.31601
H         -2.98111       -1.01301        0.44182
H         -4.65516        0.47957        2.08039
