14
	Energy:      50.6421488
C         -3.58136        2.15820        0.00000
C         -4.66300        1.26583        0.00000
C         -4.46210       -0.14687       -0.00000
C         -3.17457       -0.70232       -0.00000
C         -2.17550        0.21482        0.00000
C         -2.36622        1.55594        0.00000
C         -0.93819        1.76592        0.00000
C         -0.74555        0.41127        0.00000
H         -3.71074        3.23088        0.00000
H         -5.67942        1.65479        0.00000
H         -5.32979       -0.80377       -0.00000
H         -2.99976       -1.76854       -0.00000
H         -0.28888        2.63407        0.00000
H          0.12004       -0.24146        0.00000
