10
	Energy:      27.6730789
C         -2.02153        0.83437        0.10941
C         -1.28861       -0.29154        0.01685
C          0.12471        0.05288        0.01462
C          0.26039        1.38751        0.10559
C         -1.07734        1.92307        0.16820
H         -1.32993        2.96571        0.26661
H          0.92390       -0.66913       -0.04969
H          1.17415        1.95718        0.13038
H         -3.09467        0.92167        0.13747
H         -1.66787       -1.29963       -0.04551
