5
	Energy:      42.9319193
C         -3.82960       -0.88483        0.00001
C         -2.53710       -0.82754       -0.00000
O         -3.23539        0.31792       -0.00000
H         -4.77919       -1.32203        0.00002
H         -1.55255       -1.17900       -0.00001
