5
	Energy:      28.0081478
C         -1.29029       -1.83416       -0.00000
C          0.01157       -1.76967       -0.00000
S         -0.71691       -0.23629       -0.00000
H          0.93974       -2.29412       -0.00000
H         -2.16208       -2.44776        0.00000
